#     DFTpy    
  CRYSTAL 
    
  PRIMVEC    
  4.05    0.0    0.0    
  0.0    4.05    0.0    
  0.0    0.0    4.05    
  PRIMCOORD    
  4    1    
  Al    0.0    0.0    0.0    
  Al    0.0    2.025    2.025    
  Al    2.025    0.0    2.025    
  Al    2.025    2.025    0.0    
  BEGIN_BLOCK_DATAGRID_3D    
  3d_datagrid_density    
  BEGIN_DATAGRID_3D#0    
  21    21    21    
  0.0    0.0    0.0    
  4.05    0.0    0.0    
  0.0    4.05    0.0    
  0.0    0.0    4.05    
  0.0653318376201168    0.07430051386293596    0.10333522593366436    0.15238214686628615    0.1957316100690506    
  0.19937259030295026    0.18067255130523466    0.16302197364850698    0.15092087295183218    0.1443932225217733    
  0.1422996618425342    0.14439322419956788    0.15092087544253094    0.16302196124417775    0.1806725434845082    
  0.19937256441465892    0.1957315764870992    0.15238211996271536    0.10333524987891668    0.07430050707944402    
  0.0653318376201168    0.07430051610467843    0.08370634717859537    0.11356848547176457    0.16132915961760658    
  0.19916701178694005    0.19899742596562692    0.18045702720469592    0.16368169330446924    0.15236230855815275    
  0.1463133393664414    0.1443931919077347    0.14631333666454158    0.15236228741447025    0.16368171655055155    
  0.18045703404163357    0.1989974077222864    0.19916701261100178    0.1613291371485338    0.1135685225142312    
  0.0837063711771878    0.07430051610467843    0.10333522928662892    0.1135684865331378    0.14367306515064243    
  0.18375363273243583    0.20528185960870124    0.19723241577426925    0.1801894360770822    0.16615234955577546    
  0.15711045733393    0.15236232218282764    0.15092089358233302    0.1523623103790033    0.15711045127608886    
  0.166152327149514    0.18018949602014084    0.19723241115699125    0.2052818430101007    0.18375363971827174    
  0.14367308148446198    0.11356850990071705    0.10333522928662892    0.1523821734567685    0.16132914539226553    
  0.18375361558154002    0.20408664455124062    0.20579110614002097    0.19387593251148277    0.18092691956124562    
  0.1715100113873227    0.1661523285531913    0.1636817369243601    0.16302193690869451    0.16368169611914452    
  0.1661523243547764    0.17150999565348918    0.18092702228553031    0.19387590483731965    0.20579105992958008    
  0.20408660439127568    0.1837536335816294    0.16132913700625812    0.1523821734567685    0.19573160310730206    
  0.19916699889559467    0.20528184426339077    0.20579113291440393    0.1990717420761407    0.19049704858476676    
  0.18407242745558844    0.18092695359112218    0.18018945362553287    0.18045702998363194    0.18067253020425883    
  0.180457043232905    0.18018942375109825    0.1809269796682544    0.18407240100276062    0.19049705536268205    
  0.19907175237127647    0.20579112328345545    0.2052818676197579    0.19916700321190045    0.19573160310730206    
  0.1993726017171231    0.19899739981546952    0.1972324287386676    0.19387596260993364    0.19049702108238273    
  0.1890670764048786    0.19049700294033853    0.19387594036851663    0.1972324032042609    0.19899743766052103    
  0.199372557981095    0.19899740504244623    0.19723240941846668    0.1938759740264608    0.19049703528345552    
  0.189067028652422    0.1904970284394019    0.19387591876483995    0.19723242584177578    0.19899741796181872    
  0.1993726017171231    0.18067256485371694    0.18045702195087188    0.1801894460625498    0.18092698956927475    
  0.18407238879646712    0.1904970121052655    0.19907176149037772    0.2057910957886292    0.20528183610054218    
  0.1991670366035204    0.19573159043341484    0.19916699136153687    0.20528179058899512    0.2057911311564209    
  0.19907175265673116    0.19049705566625802    0.18407237538169172    0.18092697322098056    0.18018949939582835    
  0.1804570440147373    0.18067256485371694    0.16302195250022397    0.16368167919792243    0.1661523315381713    
  0.17151003802246997    0.18092697039386058    0.19387591882748248    0.20579107906336977    0.20408662793242227    
  0.18375364049086007    0.1613291267860741    0.15238215688749907    0.16132913931924547    0.18375361244493424    
  0.20408659838119342    0.20579113787513773    0.19387592623222932    0.18092693952828298    0.1715100210793945    
  0.16615233256510395    0.16368168115495704    0.16302195250022397    0.1509208813406355    0.1523622839929848    
  0.15711045186185463    0.16615236436160413    0.18018948027741882    0.1972324593468152    0.2052818382584911    
  0.18375361099183446    0.14367310490305232    0.11356852170911945    0.10333523682546399    0.11356848416976818    
  0.14367309180434779    0.18375363200485237    0.2052818990279094    0.19723240223763291    0.1801894149656932    
  0.1661523422187316    0.15711044028092275    0.15236234179685937    0.1509208813406355    0.1443932271104111    
  0.14631334136630664    0.1523622820527245    0.16368171455046432    0.1804570227566864    0.19899739591511498    
  0.1991669986567325    0.16132913716942157    0.11356850033028242    0.08370636085932806    0.07430051187151522    
  0.08370635965969224    0.11356847650989116    0.1613291635925527    0.199167020131031    0.19899742564506914    
  0.18045699487787617    0.1636816892784393    0.15236233125474646    0.14631334132255266    0.1443932271104111    
  0.14229969036252033    0.14439320294642805    0.15092087014197952    0.16302194712120255    0.1806725487001074    
  0.1993725924723099    0.19573159327545428    0.15238215277141182    0.10333523982649728    0.07430051962878091    
  0.06533182194560191    0.07430051814355679    0.10333523071952248    0.1523821666676751    0.1957315896102768    
  0.19937257643937487    0.18067255110892455    0.16302191805283583    0.15092088507256227    0.14439320141687395    
  0.14229969036252033    0.1443932032742976    0.14631332002346184    0.15236229328285056    0.1636817254151389    
  0.18045701689854943    0.19899742590572733    0.1991669908147366    0.16132912021426438    0.11356849789286104    
  0.08370635592504777    0.0743004991141512    0.08370636044760088    0.11356845405865708    0.16132915740319784    
  0.19916704190060436    0.19899740737997287    0.18045701636660882    0.16368167960320718    0.1523623068294357    
  0.14631334730888632    0.1443932032742976    0.15092088449241137    0.15236229917850236    0.15711044320854592    
  0.16615234745957508    0.18018945013704996    0.19723244892132918    0.20528182474321915    0.18375362190939448    
  0.14367308533664017    0.11356849035816095    0.10333522753200111    0.11356848156989584    0.1436730930598586    
  0.18375360681822428    0.20528188844406334    0.19723242634000368    0.180189440047702    0.16615236251458176    
  0.15711046456598485    0.1523622993597566    0.15092088449241137    0.1630219575519985    0.1636816658444583    
  0.16615232371012675    0.17151002030461773    0.18092697295002533    0.19387594281716872    0.20579109521571975    
  0.20408661480266863    0.18375361910865637    0.16132916912786738    0.15238214873553715    0.16132913430105694    
  0.18375359056316481    0.20408663310159042    0.20579113018375833    0.19387590821517406    0.1809269541184868    
  0.17151000788308357    0.16615232383601927    0.1636816956915671    0.1630219575519985    0.18067255578613683    
  0.18045702241882136    0.18018942538234595    0.1809269932912893    0.18407240864177016    0.19049703746870877    
  0.19907173654293092    0.20579106933470082    0.2052818835549061    0.1991670282528221    0.1957316035967544    
  0.19916700865604642    0.20528184793116577    0.20579109202163556    0.19907177490293707    0.19049704084007293    
  0.18407238342127982    0.18092698077099362    0.18018946005673325    0.180457017939553    0.18067255578613683    
  0.19937257138155987    0.198997373251193    0.19723243588513345    0.193875939547159    0.1904970259532165    
  0.18906708055546842    0.19049699750805094    0.19387594792919835    0.1972324187262714    0.19899742137137497    
  0.19937255613465713    0.19899741319577657    0.19723243491205852    0.19387599048387164    0.19049704418161037    
  0.1890670436776821    0.19049701917673603    0.1938759091161282    0.19723241579820075    0.1989974129403624    
  0.19937257138155987    0.19573156442635012    0.1991669714255741    0.20528180558540254    0.20579111664945418    
  0.19907173961560895    0.19049704650232024    0.18407239987672985    0.18092694981852833    0.18018944232010195    
  0.18045704773870913    0.18067254940043084    0.1804570357197705    0.18018943633272166    0.18092699092103698    
  0.18407243598719455    0.19049704839815432    0.1990717299993361    0.2057910821097872    0.2052818893586215    
  0.19916698291853208    0.19573156442635012    0.15238214730833163    0.1613291397574937    0.18375361213140404    
  0.20408661731311972    0.20579108541510227    0.19387594615262244    0.18092696521309343    0.17151001343831931    
  0.16615231846000306    0.16368168641707434    0.1630219344165987    0.16368167800801106    0.16615230459285457    
  0.1715100237753663    0.18092700909570367    0.1938759334873399    0.20579108944592076    0.2040865953263691    
  0.18375362123780822    0.16132914480028948    0.15238214730833163    0.10333525140256204    0.11356847980798207    
  0.14367305925995402    0.18375363671927578    0.205281869226229    0.197232454883525    0.1801894574536148    
  0.16615232383649514    0.1571104709070076    0.1523623422886354    0.1509208887589791    0.15236229308286858    
  0.15711040809964402    0.1661523180430219    0.180189500170129    0.1972323959281582    0.20528181008297144    
  0.1837536250418931    0.14367310384864615    0.1135685233844591    0.10333525140256204    0.07430051919200946    
  0.08370634862673798    0.11356845696128164    0.1613291727519553    0.19916698990271872    0.19899739768087427    
  0.18045701318852753    0.16368170628812292    0.15236230731752468    0.14631335235171666    0.14439319450264168    
  0.14631333235792376    0.15236231238712697    0.16368172364129785    0.18045704062965318    0.19899742112633426    
  0.19916699159670487    0.1613291524638234    0.1135685041054625    0.0837063657018228    0.07430051919200946    
  0.0653318376201168    0.07430051386293596    0.10333522593366436    0.15238214686628615    0.1957316100690506    
  0.19937259030295026    0.18067255130523466    0.16302197364850698    0.15092087295183218    0.1443932225217733    
  0.1422996618425342    0.14439322419956788    0.15092087544253094    0.16302196124417775    0.1806725434845082    
  0.19937256441465892    0.1957315764870992    0.15238211996271536    0.10333524987891668    0.07430050707944402    
  0.0653318376201168    0.0743005185598131    0.08370636171108647    0.11356849369509255    0.16132918602219196    
  0.19916701462257774    0.19899739573713557    0.1804570240854189    0.1636817226058089    0.15236229090870348    
  0.14631335033855034    0.14439320203624484    0.14631336454230537    0.15236230248883634    0.16368169712338948    
  0.180457044778541    0.19899739650453355    0.19916697745340098    0.16132914514197538    0.11356849405806649    
  0.08370635891071014    0.0743005185598131    0.08370635176557432    0.09348473205162088    0.12382430516082693    
  0.16957497300958707    0.2018008203218973    0.19838950404817335    0.18016746878190032    0.16424528430129082    
  0.15365998390448907    0.14806548714246756    0.146313340497419    0.14806547772223852    0.15365995603025373    
  0.16424531910767104    0.18016748216553485    0.1983895488406781    0.20180085652918045    0.16957493212103678    
  0.12382431196536889    0.09348474023236081    0.08370635176557432    0.11356849420698131    0.12382429704769768    
  0.15309818438370357    0.18947299852670035    0.20593893094902205    0.19617024059428406    0.17968753099393273    
  0.1664298854260389    0.15802159069843522    0.15365997411114835    0.15236231729177854    0.15365997949056623    
  0.15802157058622465    0.16642985619419512    0.1796875711683612    0.19617024752212212    0.20593888451859826    
  0.18947299187066746    0.15309819820151943    0.12382430613274277    0.11356849420698131    0.16132915376362897    
  0.16957491160849802    0.18947297048923897    0.20571528030000416    0.20466948380255767    0.19249763720280738    
  0.18011663846798054    0.1713241158362308    0.16642984850463244    0.16424531036929074    0.16368169584059195    
  0.1642452857285668    0.16642983213189838    0.17132410251746738    0.18011668723990681    0.19249762556409503    
  0.20466947413388514    0.2057152464037629    0.1894729917888199    0.16957495447380758    0.16132915376362897    
  0.19916701814318266    0.2018008189283932    0.20593890199525983    0.20466949878596813    0.19738632280502608    
  0.18898327719094324    0.18290669400154605    0.1801166651880949    0.17968755526295818    0.180167448787433    
  0.18045701724427596    0.18016745862400477    0.17968755635934708    0.1801166852751681    0.18290671862726374    
  0.18898324734292327    0.19738635666588966    0.2046694755304754    0.2059389097210586    0.20180084709473473    
  0.19916701814318266    0.1989974125954973    0.19838948658800074    0.19617028759074645    0.1924976659942458    
  0.18898327526338907    0.18751600820371309    0.18898324587619583    0.19249765153366688    0.19617024516218814    
  0.19838953355920147    0.19899737520172575    0.19838953749136012    0.19617023355698876    0.19249768462772393    
  0.18898324533745758    0.18751595635638343    0.1889832514349565    0.1924976442327013    0.19617025845749844    
  0.1983895202240052    0.1989974125954973    0.18045701926850788    0.1801674476657711    0.17968753714117977    
  0.1801166964615816    0.1829066826994091    0.1889832558708868    0.1973863504571574    0.20466946649788864    
  0.20593888950089628    0.2018008502499862    0.19916701770593814    0.20180083121229186    0.20593889288115405    
  0.20466949562911585    0.1973863816469422    0.18898325695182322    0.18290668310211539    0.1801166538797758    
  0.179687580230921    0.18016744201046134    0.18045701926850788    0.16368169588115528    0.1642453014175114    
  0.16642984865251292    0.17132411116792798    0.180116653524912    0.1924976373945422    0.2046694760758458    
  0.20571526903513135    0.18947298114710756    0.16957493681764557    0.1613291548490019    0.16957491452823234    
  0.18947295268812328    0.20571527599093517    0.2046695119152271    0.19249762103561677    0.1801166379323716    
  0.17132411857173804    0.16642989165391983    0.16424532696810737    0.16368169588115528    0.15236233862172122    
  0.1536599577176543    0.15802157082123813    0.16642987888050073    0.1796875733935315    0.19617028032748882    
  0.2059388883332679    0.18947298108285732    0.15309818339040795    0.12382434336117512    0.11356851539511927    
  0.12382430308665161    0.15309819452795342    0.18947297975733798    0.20593895257602132    0.196170227014936    
  0.17968750370836964    0.1664298544362757    0.1580215823114043    0.15365999493682586    0.15236233862172122    
  0.14631337209405937    0.14806548237484038    0.15365994323472584    0.1642453282118177    0.18016747418721432    
  0.19838950406923525    0.2018008410850786    0.16957491010047004    0.12382431408455465    0.09348474241548892    
  0.08370635147249247    0.09348475009890922    0.1238242979249957    0.16957495284685734    0.20180085731600705    
  0.19838952835918844    0.18016745817331206    0.16424533195424842    0.15365997972888226    0.14806547576106874    
  0.14631337209405937    0.1443932223130193    0.14631333644879962    0.15236230946297064    0.16368173139065517    
  0.18045700947626006    0.19899740726862888    0.19916696879007378    0.16132916105997505    0.11356850940919973    
  0.08370637623704605    0.07430050913906518    0.08370637016107188    0.1135684839568832    0.16132915696024325    
  0.19916701387150199    0.198997382329404    0.18045707043552545    0.16368168522121415    0.15236230800244852    
  0.14631335645592672    0.1443932223130193    0.14631335223802142    0.148065461512263    0.1536599738624728    
  0.16424533380704612    0.18016743894842865    0.1983895370472635    0.20180083960111342    0.16957494831081535    
  0.12382430340871495    0.09348475554858403    0.08370635449147387    0.0934847619476369    0.12382428730013499    
  0.1695749872004461    0.20180087681045036    0.1983895346803549    0.18016746066683323    0.164245288940961    
  0.15365999960589774    0.14806547695923852    0.14631335223802142    0.15236233314648415    0.15365996859691075    
  0.15802155564933656    0.16642989324617158    0.17968755530706107    0.19617028255020608    0.20593886953132537    
  0.18947298435324564    0.1530981877832982    0.12382432986186051    0.11356850411426901    0.12382428660505125    
  0.15309819111715578    0.1894729562034801    0.20593892497643168    0.1961702641038955    0.1796875256230938    
  0.16642987484266447    0.15802159633884982    0.15365997156351763    0.15236233314648415    0.16368171315534139    
  0.16424529017928052    0.16642986326885903    0.17132410668883782    0.18011666084532008    0.1924976451153004    
  0.2046694502327209    0.20571525306786348    0.18947296492480825    0.16957491361443336    0.16132913001307037    
  0.16957494355800068    0.1894729805117658    0.2057152621237287    0.2046695068115242    0.1924976169732908    
  0.18011663658284585    0.1713240883082722    0.16642987376548915    0.16424528109097378    0.16368171315534139    
  0.18045707415410478    0.18016746255496324    0.17968754211518087    0.18011672749214494    0.18290668674720528    
  0.18898327273090373    0.19738636631023684    0.20466946362069785    0.20593893285971107    0.2018008636893383    
  0.19916698393919657    0.20180085855940189    0.20593889707348756    0.204669478808609    0.1973863620540148    
  0.18898326103655866    0.18290669133573736    0.18011669261398758    0.1796875648280092    0.1801674509954467    
  0.18045707415410478    0.1989974205262055    0.19838949835169403    0.1961703028798076    0.1924976605313514    
  0.1889832453599349    0.1875160021278494    0.1889832438984743    0.19249765833164842    0.1961703015376585    
  0.19838953001629483    0.198997392506407    0.1983895302058501    0.19617027361778142    0.19249768876073128    
  0.18898325372933267    0.18751597626729818    0.188983233791372    0.19249763135285208    0.19617029023940577    
  0.19838954670084902    0.1989974205262055    0.1991670023487859    0.2018008632226245    0.20593890496786976    
  0.20466952931010346    0.19738636148175978    0.1889832492263346    0.18290668284336237    0.18011667533933026    
  0.17968755759801722    0.18016745904943055    0.180457014093665    0.18016745907167045    0.17968752505140123    
  0.18011669365424832    0.1829066934816129    0.18898329332938216    0.197386318902913    0.20466948423922232    
  0.20593893944244404    0.20180084417321945    0.1991670023487859    0.16132915467614872    0.16957495473666234    
  0.18947296437477856    0.2057152714367482    0.20466948796342274    0.19249763798943964    0.18011668121203434    
  0.17132410351818775    0.16642988195850894    0.1642453120202976    0.1636817006805861    0.1642453230360409    
  0.166429871162091    0.1713241064165866    0.1801167002640292    0.19249760929707505    0.2046694703366364    
  0.20571525625451767    0.18947297502667962    0.16957494133304318    0.16132915467614872    0.11356850384983425    
  0.12382430981592582    0.15309819723935578    0.18947298109282204    0.20593891840472148    0.19617030606785127    
  0.17968752398564547    0.16642987349669344    0.15802156679773224    0.15365999590660911    0.15236232680919418    
  0.15365996682566327    0.1580215555364365    0.16642985501272695    0.1796875765451859    0.19617025084772124    
  0.20593888780928343    0.18947299364045864    0.15309819425187488    0.1238243111933799    0.11356850384983425    
  0.08370636615712555    0.0934847296725514    0.1238243129656363    0.16957496933337513    0.20180082789506323    
  0.1983895130042185    0.1801674601387104    0.16424528176383696    0.1536599806968889    0.14806548993761054    
  0.1463133543039838    0.14806546679263624    0.1536599650688733    0.16424533672795316    0.18016748239295852    
  0.19838954670284561    0.20180083773837965    0.16957493098625612    0.12382430733525591    0.09348475761346296    
  0.08370636615712555    0.0743005185598131    0.08370636171108647    0.11356849369509255    0.16132918602219196    
  0.19916701462257774    0.19899739573713557    0.1804570240854189    0.1636817226058089    0.15236229090870348    
  0.14631335033855034    0.14439320203624484    0.14631336454230537    0.15236230248883634    0.16368169712338948    
  0.180457044778541    0.19899739650453355    0.19916697745340098    0.16132914514197538    0.11356849405806649    
  0.08370635891071014    0.0743005185598131    0.10333525817052441    0.11356849389445967    0.14367310896820834    
  0.18375362774727402    0.20528184298481206    0.19723247661183138    0.18018944378802806    0.16615236574488565    
  0.15711047735667602    0.15236234773575427    0.15092086768955412    0.15236232292769372    0.15711044894351994    
  0.16615236050812612    0.18018949593561207    0.19723242681592731    0.2052818290875447    0.18375358494492805    
  0.1436731052852787    0.11356849732329657    0.10333525817052441    0.11356849092751836    0.12382428252555637    
  0.15309819605441335    0.1894730120674103    0.20593891167331257    0.196170279973145    0.17968753448438607    
  0.16642986025501508    0.1580215920266026    0.153659983311168    0.15236229233248505    0.1536599577198592    
  0.15802154788314624    0.16642991970855106    0.1796875592757902    0.19617029398743382    0.20593892825855187    
  0.18947294570361836    0.15309820796989929    0.12382431724045585    0.11356849092751836    0.14367312056541387    
  0.15309819332708452    0.1775038408691837    0.20149687882936124    0.2055377793790118    0.19308294431124912    
  0.17861760146492361    0.16774016802039896    0.16124223320266814    0.1580215900834312    0.15711044418931533    
  0.15802159935985546    0.16124219867702166    0.16774014087502692    0.17861764652387732    0.1930829603116881    
  0.2055377383520579    0.20149685437601245    0.17750384721493073    0.1530982018603858    0.14367312056541387    
  0.18375362379212135    0.18947295217743756    0.20149682166323482    0.20727893880105047    0.20074798257348403    
  0.18879291310689872    0.1781977142761517    0.17124823446035778    0.16774016416292356    0.16642988508729784    
  0.16615233143938443    0.16642985465854918    0.16774012081614847    0.17124825275530708    0.17819778606804001    
  0.18879287630974545    0.20074792638673675    0.20727892335936615    0.20149685351476365    0.18947297563419505    
  0.18375362379212135    0.20528189160533955    0.20593885362509703    0.20553778279948512    0.20074798606057448    
  0.1927114324235352    0.18499443323210868    0.17998447257446376    0.17819775490020245    0.17861763987018356    
  0.17968754777988355    0.18018946495690397    0.17968753418302666    0.17861758515599957    0.17819776387700864    
  0.17998449099321767    0.18499443560954043    0.192711443897717    0.20074799257882903    0.20553781219168712    
  0.20593888569865068    0.20528189160533955    0.1972324364041444    0.19617025651620523    0.193082976018521    
  0.1887929225358148    0.18499443073204894    0.1834689016740907    0.1849944067127577    0.18879289186626122    
  0.19308295292041933    0.19617028240784853    0.19723245768593653    0.1961702665625401    0.19308295630900071    
  0.18879293004367712    0.18499445867098646    0.18346888401360686    0.18499439811117652    0.1887928859073466    
  0.19308295221161983    0.19617026464231602    0.1972324364041444    0.1801894481349662    0.1796875255845992    
  0.17861757065775039    0.17819778472882317    0.17998446437391638    0.1849944335648586    0.19271142621446183    
  0.20074798040802078    0.20553779128179667    0.20593891796172106    0.205281845415586    0.20593891380263116    
  0.2055377342234805    0.20074798509370248    0.192711476463045    0.18499444091016248    0.17998444403126768    
  0.17819775630192095    0.17861763338465553    0.17968755069569303    0.1801894481349662    0.16615232040433398    
  0.1664298544480709    0.16774015600834596    0.1712482413342164    0.17819774706577873    0.18879289360037266    
  0.20074797174719725    0.20727892688865351    0.20149686746649192    0.1894729917169502    0.18375362549982657    
  0.18947294680307422    0.2014968343680058    0.20727894035545683    0.2007480170741426    0.18879284435627483    
  0.17819776337232152    0.1712482771292482    0.16774016162576116    0.16642986599034684    0.16615232040433398    
  0.1571104452597061    0.15802157346587    0.1612422219347874    0.1677401564988274    0.17861764643387318    
  0.19308293829398882    0.20553776248898956    0.2014968185549153    0.1775038359357258    0.15309819863484153    
  0.14367311705004615    0.15309818606685757    0.17750384812499495    0.20149682361746837    0.20553782315006344    
  0.19308291089652407    0.1786175728920696    0.16774016954458587    0.16124225671913073    0.15802158597749902    
  0.1571104452597061    0.15236234220568376    0.15365994869673674    0.15802156751273613    0.16642989005468065    
  0.17968754341908946    0.19617029580563491    0.2059388994781102    0.18947294072540224    0.15309819845091718    
  0.12382430638655584    0.1135685044875244    0.12382429895567434    0.15309819529929514    0.1894730192839224    
  0.2059388863046048    0.19617028711937404    0.17968754055263977    0.16642988539548864    0.15802158873969468    
  0.15365994050995074    0.15236234220568376    0.15092092411772917    0.1523623016921381    0.15711046703009424    
  0.1661523340575716    0.18018946951559991    0.1972324555555433    0.2052818350001325    0.1837536000260666    
  0.1436731089248321    0.11356851012304485    0.10333523133808811    0.11356850776321094    0.14367307343429483    
  0.18375365671555152    0.20528188202400474    0.1972324307114797    0.18018946476633035    0.16615233604698695    
  0.15711045956848463    0.1523623189484453    0.15092092411772917    0.1523623101627905    0.15365994730848764    
  0.15802157755266022    0.1664298866284687    0.17968755221941896    0.1961703058237924    0.20593891429819855    
  0.1894729918800993    0.15309820646942454    0.12382431175518264    0.11356848348182699    0.12382429858057652    
  0.15309815967532917    0.1894730040428306    0.2059389309310364    0.19617029823674695    0.17968752361909981    
  0.1664298648912049    0.15802161232020012    0.15365995175129488    0.1523623101627905    0.157110453903641    
  0.1580215846250322    0.16124220568236264    0.1677401728615111    0.17861761404360818    0.19308297360282567    
  0.2055377591311141    0.20149682424573173    0.1775038637100081    0.15309820751023337    0.14367311429182633    
  0.15309818284544077    0.17750384019977125    0.2014968384695904    0.20553781435199198    0.1930829550426572    
  0.17861757739355927    0.1677401383345662    0.16124222687024323    0.15802161722207303    0.157110453903641    
  0.1661523269093231    0.1664298827916756    0.1677401586969975    0.17124827023895833    0.17819777627585884    
  0.18879288379595177    0.20074795625127573    0.20727894173950473    0.20149686379465392    0.1894729737380401    
  0.18375362192694866    0.18947295337858547    0.20149681325191948    0.2072789415691079    0.2007480313877938    
  0.18879286918574859    0.17819775290707351    0.17124822027354267    0.1677401511832854    0.16642988081494575    
  0.1661523269093231    0.1801894673155129    0.17968751165211577    0.17861759104922859    0.17819774945258443    
  0.17998445979862004    0.18499443061366927    0.19271144276341795    0.20074791588072566    0.20553780791619203    
  0.2059389272227913    0.20528184916701575    0.20593891430109992    0.2055377742283004    0.20074797097751207    
  0.19271147604574318    0.18499443336249377    0.17998445331612264    0.17819778493884308    0.17861761224494252    
  0.17968751836578625    0.1801894673155129    0.1972324443002313    0.1961702617058759    0.19308294842192253    
  0.18879290209717217    0.1849943991413091    0.1834689291915076    0.18499440280159857    0.1887929226076837    
  0.19308296652563317    0.19617026876455881    0.19723241657837193    0.19617026740225726    0.1930829456513395    
  0.1887929334671955    0.1849943986004499    0.18346885678339256    0.18499442502987154    0.1887928670792472    
  0.1930829608953574    0.19617027368305479    0.1972324443002313    0.20528186240088636    0.20593888392204757    
  0.20553778658983865    0.20074800754293823    0.19271144024188172    0.18499442314747325    0.17998446325371617    
  0.17819774596303217    0.17861763709272194    0.17968755944693784    0.18018945556733695    0.1796875173573726    
  0.17861756524819425    0.17819776935884218    0.17998447265250184    0.18499442491562204    0.1927114340611179    
  0.20074795365383197    0.20553782699142606    0.2059388851883685    0.20528186240088636    0.1837536228198614    
  0.18947296888581086    0.20149683821039865    0.20727893317761198    0.20074795556906733    0.18879289568704904    
  0.1781977111360835    0.1712482262012977    0.16774015456881414    0.1664298737305829    0.166152332872995    
  0.16642984848206901    0.16774015190372163    0.1712482368413387    0.17819780088593923    0.18879285459797251    
  0.20074793935100246    0.20727894094774985    0.20149687213146772    0.18947296712637016    0.1837536228198614    
  0.1436730989152512    0.1530981801076261    0.17750383901380087    0.2014968573536176    0.2055378014257573    