#     DFTpy    
  CRYSTAL 
    
  PRIMVEC    
  4.05    0.0    0.0    
  0.0    4.05    0.0    
  0.0    0.0    4.05    
  PRIMCOORD    
  4    1    
  Al    0.0    0.0    0.0    
  Al    0.0    2.025    2.025    
  Al    2.025    0.0    2.025    
  Al    2.025    2.025    0.0    
  BEGIN_BLOCK_DATAGRID_3D    
  3d_datagrid_density    
  BEGIN_DATAGRID_3D#0    
  21    21    21    
  0.0    0.0    0.0    
  4.05    0.0    0.0    
  0.0    4.05    0.0    
  0.0    0.0    4.05    
  0.06533184180400788    0.07430051426193107    0.10333523366939991    0.15238216320867007    0.19573158010826852    
  0.1993725475060805    0.1806725455057338    0.16302190596006189    0.15092088623460348    0.14439320905226322    
  0.14229969749930008    0.1443931924669753    0.15092088636487758    0.16302189630143765    0.18067255708196658    
  0.1993725969997768    0.19573156522809    0.15238215683727233    0.10333522307283892    0.0743004952284701    
  0.06533184180400788    0.07430052020415938    0.08370635748557627    0.11356850884845708    0.16132912714963507    
  0.19916700198690418    0.1989974365218976    0.18045704629336068    0.16368169286577405    0.1523623439790388    
  0.1463133443930323    0.14439324013524293    0.14631334042638958    0.15236231306509784    0.163681675965617    
  0.18045700628580577    0.19899740588690523    0.1991669832353085    0.1613291715044475    0.11356849349571645    
  0.08370635608229368    0.07430052020415938    0.10333527205975182    0.1135684950382631    0.1436731185342345    
  0.18375359687340595    0.2052818423316286    0.1972324258326689    0.18018943574431162    0.16615231441541395    
  0.1571104690096073    0.15236233062834245    0.15092088306758336    0.15236229572114832    0.15711049135496094    
  0.1661523238462574    0.18018946032167749    0.1972324811295908    0.205281853712609    0.18375363194197128    
  0.14367311333544647    0.11356848360386389    0.10333527205975182    0.15238211526868778    0.16132914303357    
  0.18375362169430812    0.20408659943180757    0.2057910921012677    0.19387593776563414    0.18092694882504382    
  0.17151001547965902    0.16615234243555366    0.16368168423481644    0.16302192877564076    0.16368171049498484    
  0.16615234150888564    0.17150999740387593    0.18092693495584442    0.19387595962069043    0.20579112042818673    
  0.20408662541833494    0.18375362804388023    0.16132913194591925    0.15238211526868778    0.19573157587145262    
  0.19916701386134414    0.20528187442548565    0.20579107526157348    0.19907173195536912    0.19049706764771532    
  0.1840723900644621    0.18092695113031454    0.18018947457189904    0.1804570146081184    0.18067257866187486    
  0.18045699772934556    0.18018948919248018    0.18092696561742208    0.18407241366613447    0.1904970299862387    
  0.19907172669994638    0.20579109598220643    0.20528188998245997    0.19916699699188006    0.19573157587145262    
  0.19937263335153613    0.19899738119793847    0.19723247215791878    0.1938759704754577    0.19049702902090943    
  0.18906705288710102    0.19049703065532508    0.19387594581368275    0.19723245373536746    0.1989974318323303    
  0.1993725760166914    0.19899740128262425    0.19723246507632258    0.19387593648434862    0.19049699891803235    
  0.18906704355629306    0.19049704115513474    0.19387594196046215    0.1972324585005339    0.198997391301499    
  0.19937263335153613    0.18067253537006192    0.18045703943625654    0.18018945496651262    0.1809269596717525    
  0.184072414390871    0.19049704779195514    0.19907174300545408    0.205791088970986    0.20528183569064867    
  0.19916696744755627    0.1957315915274419    0.19916697094449626    0.20528188122553612    0.20579107454575837    
  0.19907173744221743    0.19049706004393838    0.18407236868833216    0.18092697158482152    0.18018942851486397    
  0.18045704046801667    0.18067253537006192    0.1630219557419256    0.16368169002229038    0.16615232207443362    
  0.17151004737557077    0.18092697795788495    0.19387596552511616    0.20579107784670078    0.20408661177350906    
  0.1837536212752907    0.16132916087419688    0.15238215053134538    0.16132915676250217    0.18375363087612792    
  0.2040866132045534    0.20579109141920343    0.1938759456135732    0.18092696273330292    0.171510013424565    
  0.1661523284185174    0.16368168584712783    0.1630219557419256    0.15092087983904265    0.1523623017743064    
  0.15711045385152117    0.16615229358053699    0.1801894311537362    0.1972324431535886    0.20528182670484169    
  0.1837536146726749    0.14367310955677198    0.11356847664768135    0.10333522243228022    0.11356850092332445    
  0.14367311871664806    0.1837535812391257    0.20528187860864433    0.19723247413543146    0.1801894594464422    
  0.16615234079064534    0.1571104681018504    0.15236232089087973    0.15092087983904265    0.14439321020351978    
  0.14631337227445948    0.15236232142353243    0.16368169551252967    0.18045703700334675    0.19899744016532558    
  0.19916701101771234    0.16132911812724668    0.1135685121550245    0.08370636046082472    0.07430052925638539    
  0.08370635158659732    0.11356850156833309    0.1613291450641395    0.19916698538297395    0.19899741192044743    
  0.18045699214374292    0.16368172348829033    0.15236233406680788    0.14631337528013258    0.14439321020351978    
  0.1422997153225253    0.14439322410507446    0.15092089632169572    0.16302192103565974    0.180672540789291    
  0.19937255845714388    0.19573158679416539    0.15238213969661793    0.10333522421533539    0.0743005080187457    
  0.06533184106654245    0.07430049213659175    0.10333526494749153    0.1523821119899184    0.19573159424771724    
  0.1993725754719563    0.1806725533305473    0.16302190483608045    0.15092088538300102    0.14439319067010348    
  0.1422997153225253    0.14439320437139994    0.14631336373936726    0.1523623355137211    0.1636816812278555    
  0.18045703696744023    0.19899741140187382    0.19916699588628742    0.16132912888022377    0.11356848397157066    
  0.08370635347567798    0.07430051744404968    0.08370635795827164    0.11356851609972635    0.16132913521110048    
  0.19916698210278375    0.1989974152929058    0.18045699978826507    0.16368169056207005    0.15236232149123916    
  0.14631335907825796    0.14439320437139994    0.15092092041410826    0.15236231133244385    0.1571104933075527    
  0.16615229948448462    0.18018946825722648    0.19723243332788126    0.2052818439780941    0.18375359524343712    
  0.14367311492366752    0.11356849287900897    0.10333522022392656    0.11356847026571328    0.14367313470892393    
  0.18375361957890457    0.20528181762413447    0.19723248144631203    0.18018945116304635    0.16615233510980118    
  0.1571104811685199    0.15236230310829899    0.15092092041410826    0.1630219242106912    0.1636817191617099    
  0.16615233751464165    0.17151000799657865    0.18092696054942445    0.19387596845420857    0.20579106471183983    
  0.2040866064478474    0.1837536116437388    0.16132914312507443    0.15238213624596977    0.16132912861249368    
  0.18375362207954152    0.204086606668534    0.20579108550100492    0.19387597780387186    0.18092697120606713    
  0.17151005192049823    0.16615231887929988    0.16368167556013827    0.1630219242106912    0.18067254671089153    
  0.18045703357011547    0.18018947260322807    0.18092695739420492    0.18407239113384966    0.19049707052157383    
  0.1990717474867438    0.20579108617329056    0.2052818564244262    0.19916699151280434    0.19573159315840638    
  0.19916698665251278    0.2052818618102844    0.2057910899912843    0.19907174169628428    0.190497022758728    
  0.1840723841593286    0.18092698172398666    0.18018944181591465    0.18045701783737728    0.18067254671089153    
  0.19937259186775977    0.19899740303654118    0.19723243691799872    0.1938759516115132    0.1904970305363257    
  0.18906709164750476    0.19049705155185223    0.19387595012108058    0.1972324413368921    0.198997401115413    
  0.1993726003724743    0.1989973715533805    0.19723246718646706    0.19387592114206134    0.19049703009817162    
  0.18906708880224582    0.1904970049700331    0.19387594640356692    0.1972324246909755    0.19899739845882788    
  0.19937259186775977    0.19573159490121317    0.1991670287651079    0.20528184718389628    0.205791075499562    
  0.19907173508349665    0.19049706745964162    0.18407237916623365    0.18092697303612323    0.18018944133793025    
  0.18045703083243606    0.1806725430128104    0.18045703213175807    0.1801894814713753    0.18092696721407456    
  0.18407239889307747    0.19049704583738805    0.1990717139635336    0.20579108688334194    0.20528184784133202    
  0.19916703839529465    0.19573159490121317    0.15238213439151324    0.1613291603928993    0.18375361587571792    
  0.20408659778170354    0.20579110617813848    0.19387596452406552    0.18092698027482582    0.1715100041685501    
  0.1661523638535045    0.16368171240068433    0.16302193676890112    0.16368170778675578    0.16615234436342946    
  0.1715100017705287    0.18092695078414198    0.19387596586228134    0.20579108403683433    0.20408662737014702    
  0.18375362287908048    0.16132913473556185    0.15238213439151324    0.10333524421971586    0.11356847967375253    
  0.143673089289569    0.18375360279713623    0.20528184194145002    0.1972324382496064    0.18018944842257983    
  0.16615232425320517    0.15711049202425195    0.15236231174411188    0.1509208726362512    0.1523623248132198    
  0.15711046158282382    0.16615233719911737    0.18018944948694265    0.19723247428166785    0.20528182814218116    
  0.18375363708653952    0.143673098577341    0.11356848433879374    0.10333524421971586    0.07430051675382861    
  0.083706371231021    0.1135685204838592    0.16132914212775148    0.19916700898459633    0.19899741717571973    
  0.18045702901212227    0.16368168334226577    0.15236234161005166    0.14631336194272193    0.1443932366513389    
  0.14631335034913312    0.1523623560264743    0.163681702081427    0.18045699753855549    0.19899741800086201    
  0.19916700008386934    0.16132915319512117    0.11356851824746746    0.08370636195815648    0.07430051675382861    
  0.06533184180400788    0.07430051426193107    0.10333523366939991    0.15238216320867007    0.19573158010826852    
  0.1993725475060805    0.1806725455057338    0.16302190596006189    0.15092088623460348    0.14439320905226322    
  0.14229969749930008    0.1443931924669753    0.15092088636487758    0.16302189630143765    0.18067255708196658    
  0.1993725969997768    0.19573156522809    0.15238215683727233    0.10333522307283892    0.0743004952284701    
  0.06533184180400788    0.07430054179054664    0.0837063597727585    0.11356851613400526    0.16132914329900225    
  0.199166982752754    0.19899740077956563    0.18045702550850765    0.16368167950780227    0.15236231729092278    
  0.146313342373579    0.1443932368092371    0.14631333531550011    0.15236232916498174    0.16368170800008702    
  0.18045703733820462    0.19899741670486729    0.199166988774319    0.16132915092268116    0.11356848657220707    
  0.08370635606659121    0.07430054179054664    0.08370635954627922    0.09348474564323415    0.12382431814348441    
  0.16957492360463675    0.2018008421818797    0.19838956805455848    0.18016746117222382    0.16424530192513886    
  0.1536599829771648    0.14806547726424332    0.14631337073023942    0.14806549801261945    0.15365999772166666    
  0.16424530301139498    0.1801674484394055    0.19838951975808794    0.20180082846670586    0.16957495232875225    
  0.1238243012760913    0.09348474337531078    0.08370635954627922    0.11356849632609438    0.12382429562547999    
  0.15309820974289837    0.1894729649931584    0.20593887507052697    0.19617029542731462    0.17968753156219838    
  0.1664298696779076    0.1580215875755707    0.15365995538647365    0.15236230826753686    0.15365998003088996    
  0.1580215967579996    0.16642985992999276    0.1796875401115224    0.19617030140071084    0.20593887025133267    
  0.18947297771397031    0.15309819249104506    0.1238242982065184    0.11356849632609438    0.16132913775464824    
  0.16957495622700933    0.18947297010943537    0.20571527974277423    0.20466945653046287    0.19249766140008762    
  0.18011664741106753    0.17132407748816658    0.16642990456820847    0.16424529608426433    0.16368172090425895    
  0.16424529107809882    0.16642990134085017    0.17132408731777043    0.18011666792422196    0.19249768703007006    
  0.20466950250227436    0.20571526094987347    0.18947299935353637    0.16957490125371455    0.16132913775464824    
  0.19916701654731517    0.20180085100106693    0.205938922215072    0.2046694325559977    0.19738635804522361    
  0.18898326975099342    0.18290667974390082    0.18011666320500352    0.1796875669999961    0.18016744185401443    
  0.1804570482490595    0.180167422050266    0.17968755985348753    0.1801166559010501    0.18290665391608837    
  0.18898323705907885    0.19738631268123868    0.20466947540982197    0.20593889621225392    0.20180085668198572    
  0.19916701654731517    0.1989974222261555    0.19838954388457505    0.19617029634184452    0.19249764249366313    
  0.18898324424838456    0.18751599954552003    0.18898324916813342    0.19249764826561472    0.19617028449895677    
  0.19838952186164435    0.1989974115614583    0.19838948664845066    0.19617030420472886    0.19249763552269528    
  0.18898327318132999    0.18751600006042132    0.1889832509006501    0.19249766198956073    0.19617031538312174    
  0.19838949681599988    0.1989974222261555    0.18045702850523623    0.18016748296213103    0.17968753501549078    
  0.18011663422832896    0.18290668681122682    0.18898327616321856    0.19738635477405417    0.20466949720342692    
  0.20593889615097405    0.20180084145428392    0.19916701369930626    0.20180084294432787    0.20593893485527334    
  0.2046694400249069    0.19738635297903465    0.18898328849754872    0.1829066742654793    0.18011669114829137    
  0.17968754317329377    0.18016747988302861    0.18045702850523623    0.1636817032046539    0.1642452927383019    
  0.1664298784456957    0.1713241186277495    0.18011666617184693    0.19249767774885193    0.20466945350080154    
  0.2057152409669287    0.18947300707508163    0.1695749601653625    0.161329154286777    0.16957492736149954    
  0.1894729908363816    0.20571524081622822    0.20466947608642236    0.19249765762489546    0.18011668176813103    
  0.17132409565869386    0.16642987211400637    0.16424528528447613    0.1636817032046539    0.15236230744543786    
  0.15365995217556924    0.15802156441347306    0.1664298717661092    0.1796875379703168    0.1961702855451319    
  0.20593890602446718    0.18947299474784401    0.15309820856319195    0.12382431350984269    0.11356847328540441    
  0.12382429939195261    0.15309821158927522    0.18947297668990473    0.2059389148024769    0.19617033426612185    
  0.17968752627365792    0.1664298707607571    0.1580215908661963    0.15365996965380602    0.15236230744543786    
  0.14631336049134572    0.14806550978489652    0.1536600044156352    0.1642453036075628    0.18016747948099884    
  0.19838954483880955    0.20180086482338397    0.1695749096482666    0.12382433296554637    0.09348474947627919    
  0.08370639496955368    0.09348474666741541    0.12382433002080241    0.16957492602133398    0.20180085008856555    
  0.19838952903138043    0.18016743707892507    0.16424530531526538    0.15365999302260816    0.14806551158576892    
  0.14631336049134572    0.14439324449307064    0.14631335124297976    0.15236234390598102    0.16368170215111968    
  0.18045702701876765    0.19899740440789906    0.19916698020028575    0.16132911479974818    0.11356849018697736    
  0.0837063723912804    0.0743005195909613    0.08370634546972558    0.11356851364944387    0.16132914021042166    
  0.19916699371290883    0.19899742604328788    0.1804570063358411    0.1636817082631613    0.1523623126232791    
  0.1463133221134122    0.14439324449307064    0.1463133210565609    0.1480654826388318    0.1536599618583052    
  0.16424528079028958    0.1801674637065958    0.19838953754083052    0.2018008591612525    0.16957495620960714    
  0.12382433472414892    0.0934847346847492    0.08370637953897811    0.09348473485627774    0.12382432955814128    
  0.16957492629725734    0.20180086227607982    0.1983895105110232    0.18016745660197842    0.16424532739955605    
  0.1536599978437801    0.1480654840128684    0.1463133210565609    0.15236233205349484    0.15365995313861627    
  0.1580215792020218    0.16642988183187066    0.17968754970673165    0.19617031824498252    0.20593889390603565    
  0.18947298359689002    0.15309820107733182    0.12382431839227134    0.11356847153375342    0.123824315164754    
  0.153098204364723    0.18947299319888677    0.20593886701779418    0.1961702915971495    0.17968753905919246    
  0.16642986772419704    0.15802159838091678    0.15365996215665767    0.15236233205349484    0.16368171627728084    
  0.164245301630301    0.16642988760110367    0.17132407905358457    0.18011667448245258    0.19249765234917313    
  0.20466946358030189    0.20571524379255693    0.1894729877142369    0.16957492398048607    0.16132915842404394    
  0.16957495482318738    0.189472980494243    0.20571523742199901    0.20466946107697032    0.19249764581119208    
  0.18011669222053875    0.17132408866454035    0.16642987447634713    0.1642453094582245    0.16368171627728084    
  0.18045703993223838    0.18016746969433203    0.17968756662117097    0.18011666992235317    0.18290667617494175    
  0.18898329561441918    0.1973863473340936    0.20466949163423354    0.20593889655564251    0.2018008364449278    
  0.1991670049514048    0.2018008558511473    0.2059388904895527    0.20466946265207903    0.19738634168309652    
  0.18898327611932225    0.182906675975103    0.18011669244371273    0.17968754192054245    0.18016748515067213    
  0.18045703993223838    0.198997445920065    0.19838953776505025    0.1961702899362492    0.19249764807506065    
  0.1889832313493739    0.18751600796420545    0.18898323562211605    0.19249765993606816    0.19617026602817134    
  0.1983895161910569    0.19899742648082705    0.19838947409755128    0.19617031094181248    0.19249763959311547    
  0.18898326359015677    0.18751599860094195    0.1889832654538771    0.1924976537764816    0.19617028094283362    
  0.1983894695958094    0.198997445920065    0.19916698274484523    0.20180085400746398    0.20593889489678885    
  0.2046694728506289    0.19738634498610422    0.18898328430804262    0.18290666571393555    0.1801166468444445    
  0.179687553851673    0.18016746417155752    0.18045704892440526    0.1801674684821504    0.1796875783529159    
  0.18011663385373008    0.18290667522494353    0.18898326101371132    0.19738634179268688    0.20466947386238588    
  0.2059389108885288    0.20180088817742145    0.19916698274484523    0.16132913719341274    0.16957495234683093    
  0.1894729622959713    0.20571523943560366    0.20466947216768713    0.19249766592917913    0.18011669035854883    
  0.17132408664089527    0.1664298871211729    0.16424531866792244    0.16368171075339125    0.1642453261077336    
  0.16642989564368876    0.1713240859669889    0.18011664229950902    0.19249765020786477    0.20466946565212743    
  0.20571527412328464    0.18947297409038383    0.1695749370536784    0.16132913719341274    0.11356850329336823    
  0.12382430201336687    0.15309819974472144    0.18947293049269076    0.2059389003680475    0.19617026702139148    
  0.17968753971461182    0.16642985733977886    0.15802160603678564    0.15365997296924053    0.15236230652234367    
  0.15365997904485915    0.1580215860127003    0.16642985949307973    0.17968756479449371    0.19617029266568722    
  0.20593890173610327    0.18947299556891894    0.15309818894843197    0.12382427843821729    0.11356850329336823    
  0.08370635825992151    0.09348474783898847    0.12382433452755078    0.1695749418386256    0.2018008495113577    
  0.1983895310380889    0.18016747364389799    0.1642453059037391    0.153659994946958    0.14806547623582186    
  0.14631335342009757    0.14806546737053106    0.15365999758425208    0.16424528285112544    0.1801674581479198    
  0.19838949810598014    0.2018008114880862    0.16957491266737076    0.12382434303947562    0.09348474709113704    
  0.08370635825992151    0.07430054179054664    0.0837063597727585    0.11356851613400526    0.16132914329900225    
  0.199166982752754    0.19899740077956563    0.18045702550850765    0.16368167950780227    0.15236231729092278    
  0.146313342373579    0.1443932368092371    0.14631333531550011    0.15236232916498174    0.16368170800008702    
  0.18045703733820462    0.19899741670486729    0.199166988774319    0.16132915092268116    0.11356848657220707    
  0.08370635606659121    0.07430054179054664    0.10333527746224656    0.11356847982975844    0.14367308623990127    
  0.18375362568838827    0.20528183878827852    0.19723244263384498    0.18018946726417442    0.16615233033355076    
  0.15711045026507953    0.15236231023459795    0.1509209099230393    0.15236229906335344    0.1571104494515574    
  0.1661523223815114    0.18018943816683786    0.19723247460864443    0.2052818221908392    0.18375363842755318    
  0.14367310041394385    0.11356847347164853    0.10333527746224656    0.11356847897314161    0.12382432184687578    
  0.15309821726123873    0.18947297320477605    0.2059388965301708    0.19617030251163095    0.1796875553455438    
  0.16642985705478047    0.15802160482308023    0.15365995900855361    0.15236231670415126    0.15365999649453005    
  0.1580216069312982    0.16642988048373758    0.17968754610245827    0.19617030245027647    0.20593887106387987    
  0.18947298441924523    0.1530982207569867    0.12382431662115287    0.11356847897314161    0.1436731097989953    
  0.15309820073839125    0.17750385835895227    0.20149685874380188    0.20553778548086601    0.1930829800691986    
  0.17861758344709353    0.16774014517210661    0.1612422669080317    0.15802159575831795    0.15711043507863642    
  0.1580215906004946    0.16124225998498232    0.16774016809196735    0.17861758477611372    0.1930829676123216    
  0.20553776521854353    0.20149686308120499    0.17750384711943187    0.15309817315339452    0.1436731097989953    
  0.18375360714755093    0.18947295670103817    0.20149681608921005    0.2072789056500323    0.2007479560558508    
  0.18879290618272576    0.17819774033257413    0.17124825817211542    0.16774015765022945    0.16642985731476698    
  0.16615233506140578    0.1664298725099559    0.16774016815401824    0.17124824375412928    0.1781977412604818    
  0.18879295021590936    0.200747975221286    0.20727892723030714    0.20149687669573046    0.18947295363847072    
  0.18375360714755093    0.20528185713474162    0.20593888006327732    0.20553779336624264    0.20074796476706766    
  0.1927114670206582    0.1849944456461858    0.17998444803061    0.17819773143547302    0.1786175912574954    
  0.17968753195086193    0.18018946677912093    0.17968754596145003    0.17861759064476615    0.17819773738388037    
  0.17998444428857643    0.18499440679082507    0.19271143589576506    0.200747952603772    0.20553779534251448    
  0.20593890892811956    0.20528185713474162    0.1972324617216812    0.19617029177897205    0.19308297167171742    
  0.18879287376331372    0.18499440454679664    0.18346889874783828    0.18499442536584373    0.1887928739887443    
  0.1930829549063674    0.19617031675525998    0.1972324451916324    0.19617024452347104    0.19308301097444183    
  0.18879288498124086    0.18499442127066015    0.1834688956103792    0.18499441986179727    0.18879286726513841    
  0.1930829607108812    0.19617026518980568    0.1972324617216812    0.18018944056762262    0.17968755563972508    
  0.1786175861251737    0.17819771586308808    0.1799844457887924    0.1849944420091631    0.19271144928649322    
  0.20074796448825677    0.20553779879768594    0.20593889773618296    0.20528186363443315    0.2059388916934325    
  0.20553780404878283    0.2007479424648427    0.19271147809049075    0.18499441522091356    0.17998442776135035    
  0.178197787935413    0.17861760612887967    0.17968755300639205    0.18018944056762262    0.16615234042199406    
  0.16642990322553824    0.16774016689212867    0.17124823446759008    0.1781977550319794    0.18879289305698552    
  0.20074791068246142    0.20727893139069523    0.20149687658848586    0.18947299610544352    0.18375357804573095    
  0.1894729889569858    0.2014968438918343    0.20727891300611578    0.20074795197761686    0.1887929167960552    
  0.17819776655811456    0.17124824952308065    0.1677401522251022    0.16642984154377152    0.16615234042199406    
  0.1571104442256597    0.15802158377711334    0.16124223525270298    0.1677401519932438    0.17861759716964584    
  0.19308294518043476    0.20553777083666452    0.20149684705838367    0.17750385669726226    0.1530982140693552    
  0.14367308726818062    0.15309820217595296    0.1775038746578473    0.2014968133403881    0.20553776729861353    
  0.19308299789074104    0.17861759412550604    0.167740149301871    0.16124224554641478    0.15802156046046228    
  0.1571104442256597    0.15236232321141266    0.15365998137546635    0.15802159454116646    0.16642987267513376    
  0.17968755191824884    0.1961702933092685    0.20593892812209472    0.18947297154771106    0.1530981949131755    
  0.1238242878910521    0.11356848889710967    0.12382431480260796    0.15309820703652546    0.1894729950271297    
  0.2059389016312944    0.19617027367227438    0.17968753149960334    0.16642989451541326    0.15802161456510028    
  0.15365997854137575    0.15236232321141266    0.15092093059673817    0.1523623142765145    0.15711048236734232    
  0.1661523224665448    0.18018947018244474    0.19723244649970836    0.20528185621245115    0.18375360921977046    
  0.1436730898960235    0.1135684997253106    0.1033352384913228    0.11356847556080235    0.14367310812760328    
  0.1837535902440577    0.2052818683670221    0.19723244696842004    0.18018944026838044    0.16615232539407082    
  0.1571104604435188    0.1523623137934418    0.15092093059673817    0.15236231440679118    0.15365995130142215    
  0.158021595594013    0.16642984838647873    0.17968752801699683    0.19617028947524792    0.20593890347563193    
  0.18947297820182024    0.15309822241688778    0.12382429539979245    0.11356850313711776    0.12382428587076542    
  0.15309821019274517    0.18947299911408882    0.20593887641819816    0.1961702601542451    0.179687520922627    
  0.16642987997143843    0.15802160589884778    0.1536599876394956    0.15236231440679118    0.15711048881021844    
  0.15802158029828103    0.16124223325334364    0.16774014681522445    0.1786175996960818    0.1930829619856326    
  0.20553777788986524    0.20149681439468944    0.177503874421419    0.15309819896262056    0.1436730780802529    
  0.1530982071680476    0.1775038618891933    0.20149684696061032    0.20553780103869743    0.19308300390273056    
  0.17861760158443832    0.16774014120416633    0.16124223027519455    0.15802158222863844    0.15711048881021844    
  0.16615231144689288    0.1664298661492541    0.16774013305101038    0.17124822413811316    0.17819773788456195    
  0.18879288909747555    0.20074794820328368    0.2072789296176699    0.20149686046092105    0.1894729675346655    
  0.1837535947570688    0.18947297975787517    0.201496849845681    0.20727893416292217    0.20074792142223544    
  0.1887929252536473    0.17819777001040304    0.17124823652898485    0.16774017279641965    0.16642984990137    
  0.16615231144689288    0.18018945840291387    0.17968757240029054    0.17861764379403777    0.1781977374034586    
  0.17998444495198795    0.18499443028656382    0.19271144350187844    0.20074797248071785    0.20553777811834617    
  0.20593888501922028    0.20528189460490381    0.20593888906244773    0.20553780700944047    0.2007479415940183    
  0.1927114494264607    0.1849944059990428    0.17998444114461234    0.17819778682880427    0.17861760966143705    
  0.17968753264214965    0.18018945840291387    0.19723246801087174    0.19617026294004836    0.193082962064365    
  0.18879291081431035    0.18499441134749045    0.18346889748369588    0.18499440078401042    0.1887928954107448    
  0.19308295785204835    0.1961702723458101    0.1972324607612916    0.1961702604971004    0.19308297723406112    
  0.18879287838752926    0.1849944214052897    0.18346888064128622    0.18499438569653084    0.18879290478265295    
  0.19308296565813382    0.19617025931484247    0.19723246801087174    0.2052818275229307    0.2059388988469147    
  0.20553779672726685    0.20074794318886574    0.19271144547100852    0.18499444521472877    0.17998444091653218    
  0.17819774300010224    0.17861760856614362    0.17968754849755558    0.18018946507757574    0.17968753506575208    
  0.17861760160261284    0.1781977396554694    0.17998444964925428    0.18499445028444406    0.19271143378236458    
  0.20074796583632137    0.20553777059794043    0.20593893667442606    0.2052818275229307    0.18375361832020648    
  0.18947298568538545    0.2014968558935661    0.20727891593497433    0.20074797413410608    0.18879289152117795    
  0.1781977260702186    0.1712482291950339    0.16774015675204926    0.1664298649232934    0.16615234383240002    
  0.166429887464281    0.16774016666439537    0.17124823407574763    0.17819775161876186    0.1887928947449416    
  0.2007479454513894    0.20727893746475853    0.2014968207899096    0.18947298264574844    0.18375361832020648    
  0.14367309346536924    0.153098183736803    0.1775038285360934    0.2014968469851947    0.20553779177795087    